% Model:              coil.mph
% Version:            COMSOL 5.2.1.152
% Date:               Oct 29 2017, 14:45
% Dimension:          2
% Nodes:              1070
% Expressions:        1
% Description:        Magnetic vector potential, z component
% Length unit:        m
% x                       y                        comp1.Az (Wb/m)
-1                        -1                       0
-0.9259602423509594       -1                       0
-0.951971312809178        -0.9499136082143214      4.3935790708487806E-5
-1                        -0.9259602423509503      0
-0.8518834229696108       -1                       0
-0.8888100444474576       -0.9350031998590511      1.3199374705201095E-4
-1                        -0.8518834229696102      0
-0.9450862772474732       -0.888604598861605       1.1172179094344439E-4
-0.777806603580949        -1                       0
-0.8113130365216685       -0.9409085703961283      2.0358727166627964E-4
-1                        -0.7778066035809483      0
-0.9424923618102389       -0.8155408644307144      1.936949899465485E-4
-0.7037297841922872       -1                       0
-0.739087892265928        -0.9402686793858367      2.8431376725972273E-4
-1                        -0.7037297841922867      0
-0.9410226436829034       -0.7419475921642699      2.7766137293470163E-4
-0.6296529648036253       -1                       0
-0.6656573787624704       -0.9398121242584593      3.663208530240132E-4
-1                        -0.6296529648036251      0
-0.940953492048814        -0.6677944362926226      3.5710356928615386E-4
-0.5555761454149635       -1                       0
-0.5919121015486272       -0.9397681128416556      4.4552540550222907E-4
-1                        -0.5555761454149633      0
-0.940557912427786        -0.5933029172236363      4.382252784692177E-4
-0.48149932602630163      -1                       0
-0.5180774617686112       -0.9399058405508542      5.210195054138877E-4
-1                        -0.48149932602630147     0
-0.9404875718670828       -0.5189674991435578      5.150738064031599E-4
-0.4074225066376398       -1                       0
-0.444214737017268        -0.9400458806363302      5.924052527737432E-4
-1                        -0.4074225066376398      0
-0.9404073707838863       -0.4447785604606642      5.882938565517369E-4
-0.33334568724897795      -1                       0
-0.37030532759196794      -0.9401767337793427      6.580327640495065E-4
-1                        -0.3333456872489781      0
-0.9403739825096217       -0.37063107172644316     6.555790198256453E-4
-0.2592688678603161       -1                       0
-0.29637400549603216      -0.9403172073776106      7.156047022412155E-4
-1                        -0.25926886786031633     0
-0.9403777177938634       -0.29651152102537703     7.147758531083919E-4
-0.18519204847165427      -1                       0
-0.2224179962917672       -0.9404393700277014      7.632457734103403E-4
-1                        -0.18519204847165455     0
-0.9403937397349319       -0.22241849003236258     7.638324994215395E-4
-0.11111522908299243      -1                       0
-0.14842864380507562      -0.9404869743943575      7.996355732836662E-4
-1                        -0.11111522908299287     0
-0.9403920199005972       -0.148332374606322       8.009561402622895E-4
-0.03703840969433059      -1                       0
-0.07438963687905202      -0.9404606701753092      8.230796872865513E-4
-1                        -0.0370384096943312      0
-0.940361765266723        -0.07424875856856746     8.244824295907523E-4
0.0370384096943312        -1                       0
-3.0135613471770603E-4    -0.9403990364147677      8.318359904830893E-4
0.11111522908299287       -1                       0
0.07381238077348823       -0.9403256625626617      8.250761726610693E-4
0.18519204847165455       -1                       0
0.14795088052144886       -0.9402599494059652      8.028945723498601E-4
-1                        0.03703840969433059      0
-0.9403056249459881       -1.7054237962773355E-4   8.331445309678658E-4
-1                        0.11111522908299243      0
-0.9402508847348444       0.07392307245080144      8.260903460682937E-4
-1                        0.18519204847165427      0
-0.9402272006811266       0.14804813084170557      8.032963403781851E-4
0.25926886786031633       -1                       0
0.222111869863962         -0.9402233853871688      7.662038593250621E-4
0.3333456872489781        -1                       0
0.2962881526522267        -0.9402373172512193      7.16629012419057E-4
-1                        0.2592688678603161       0
-0.940247452210186        0.22217837363891293      7.658552331447577E-4
-1                        0.33334568724897795      0
-0.9403103604713051       0.2962948568871777       7.157457152170174E-4
0.4074225066376398        -1                       0
0.37046053003109697       -0.9403443117058169      6.560518570674268E-4
0.48149932602630147       -1                       0
0.4445379467363521        -0.9404470064600021      5.881284506141179E-4
-1                        0.4074225066376398       0
-0.9403803613635157       0.37041426788600407      6.556942883353425E-4
-1                        0.48149932602630163      0
-0.9403768814672205       0.44460525425589453      5.887595242372545E-4
0.5555761454149633        -1                       0
0.5185480618391612        -0.9406662163794616      5.139454521557225E-4
-1                        0.5555761454149635       0
-0.9401151287910551       0.5189441000786583       5.183258665919869E-4
0.6296529648036251        -1                       0
0.5927042605340178        -0.9407686572182511      4.3729248116146764E-4
0.7037297841922867        -1                       0
0.6670853916990798        -0.9414721463940393      3.547096633030571E-4
-1                        0.6296529648036253       0
-0.9398490125324211       0.5931849490038089       4.4358232916591277E-4
-1                        0.7037297841922872       0
-0.939302552415656        0.6685643384764182       3.6625633388070224E-4
0.7778066035809483        -1                       0
0.7410389324862622        -0.9416188521940634      2.758162718984807E-4
0.8518834229696102        -1                       0
0.8147861311926837        -0.9427212275707668      1.9371240754626485E-4
-1                        0.777806603580949        0
-0.9388947667399828       0.7415625062261282       2.8811075386250194E-4
-1                        0.8518834229696108       0
-0.9401724674130184       0.8107830763381157       2.067019718871015E-4
0.9259602423509503        -1                       0
0.8879192737305055        -0.9452222240431767      1.1213073828052416E-4
1                         -1                       0
0.9498027595769972        -0.951982228201202       4.4023018312629626E-5
-1                        0.9259602423509594       0
-0.9323588721815032       0.8886102235242742       1.3761097148380243E-4
-1                        1                        0
-0.9489751412155417       0.95225047271166         4.449882600445496E-5
1                         -0.9259602423509594      0
-0.0625                   -0.125                   0.021683269856338606
-0.125                    -0.125                   0.019448641494294483
-0.08934369166182668      -0.183441358339986       0.01770935680037133
-0.125                    -0.0625                  0.02168273284133275
-0.18332640788677518      -0.08993867012693516     0.01770231851226933
-0.9259602423509503       1                        0
1                         -0.8518834229696108      0
0.9339708959799315        -0.8882289161980411      1.347910700422099E-4
0                         -0.125                   0.022420134455302984
-0.030367500374437157     -0.18026756620340958     0.018744405893095315
0.0625                    -0.125                   0.021683382734736575
0.030194891664384892      -0.17926143509628806     0.018801411500344613
-0.125                    0                        0.022419824327352993
-0.1803059335229169       -0.030138483946352105    0.018744084931613333
-0.125                    0.0625                   0.02168226458556712
-0.17974469005148308      0.030261353268137888     0.01877428877993439
-0.8518834229696102       1                        0
-0.8865565915452551       0.9466818976830659       1.1046946219056904E-4
1                         -0.777806603580949       0
0.9398831127573913        -0.810940213219323       2.0752985360666712E-4
0.125                     -0.125                   0.019447614574640136
0.08875531584544981       -0.18233788346532728     0.017774841242165548
-0.125                    0.125                    0.019448084426767435
-0.18219325761999683      0.08959363204141309      0.01776393306862763
-0.7778066035809483       1                        0
-0.8167870151884354       0.9401136575329816       2.0034746333547562E-4
1                         -0.7037297841922872      0
0.9396233901591775        -0.7389396077086614      2.875492413058167E-4
0.125                     -0.0625                  0.021681908159079263
0.1816770105486042        -0.09222722180791432     0.017732187832836723
-0.0625                   0.125                    0.021683087661481405
-0.09052581602928045      0.1825093920987775       0.01772892448261745
-0.7037297841922867       1                        0
-0.742862004517166        0.9396617822978738       2.830692250256797E-4
1                         -0.6296529648036253      0
0.9395443825305331        -0.6661592614513311      3.674069722944698E-4
0.125                     0                        0.022419401457583272
0.18053429126925777       -0.031758719960411214    0.01871871188620269
0                         0.125                    0.022420295182198468
-0.0300058705261695       0.1801829982080577       0.01875187853352173
-0.6296529648036251       1                        0
-0.6684355221947063       0.9395677711000635       3.647945783128705E-4
1                         -0.5555761454149635      0
0.9396987800328614        -0.5922034421550088      4.457303884661059E-4
0.125                     0.0625                   0.02168186689975032
0.18046657107910136       0.02941614055658306      0.018740985929192596
0.0625                    0.125                    0.021683049158000917
0.03103534844784281       0.18051690218653768      0.018725483217727327
-0.5555761454149633       1                        0
-0.5937622570872705       0.9397509365156197       4.436951598782803E-4
1                         -0.48149932602630163     0
0.9399153994634527        -0.5183788939694534      5.206306990917817E-4
0.125                     0.125                    0.01944731716611576
0.18138860799628426       0.08979312902408779      0.017798385662801255
0.09117847379397555       0.1814156969212787       0.017767537157158484
-0.48149932602630147      1                        0
-0.5190938660190115       0.9399801863014905       5.193441071910206E-4
1                         -0.4074225066376398      0
0.9400337752082755        -0.44446091633197066     5.922916684499499E-4
-0.4074225066376398       1                        0
-0.4448031990618464       0.9400368845600794       5.919352816832062E-4
1                         -0.33334568724897795     0
0.9400798469197915        -0.37032704841234426     6.590828167987913E-4
-0.3333456872489781       1                        0
-0.3705502129015041       0.9400837099315275       6.588483467490374E-4
1                         -0.2592688678603161      0
0.9401293945472765        -0.29624358246867627     7.17960152969303E-4
-0.25926886786031633      1                        0
-0.29640248509778305      0.9401316748460312       7.17815329629802E-4
1                         -0.18519204847165427     0
0.9401670666636784        -0.22219919415845799     7.668764723477776E-4
-0.18519204847165455      1                        0
-0.2223095467598781       0.9401577806378817       7.669306946422203E-4
1                         -0.11111522908299243     0
0.9401724776173913        -0.1481628165346525      8.039871427464031E-4
-0.11111522908299287      1                        0
-0.14824788876620043      0.940145918077471        8.043099345243673E-4
1                         -0.03703840969433059     0
0.9401536401165829        -0.07410653641021056     8.274016858473933E-4
-0.0370384096943312       1                        0
-0.07416372122246527      0.9401158457857074       8.279137256870624E-4
1                         0.0370384096943312       0
0.9401331872749615        -2.7584088195681717E-5   8.355615573493023E-4
0.03703840969433059       1                        0
-6.787886057928068E-5     0.940082743806502        8.362685161885227E-4
1                         0.11111522908299287      0
0.9401189725502551        0.07405773534470679      8.278927639690679E-4
0.11111522908299243       1                        0
0.07403133073086686       0.940064738035189        8.28651658055993E-4
1                         0.18519204847165455      0
0.9401084518993964        0.1481359152960497       8.04861464865155E-4
0.18519204847165427       1                        0
0.1481019869907411        0.9400629333892249       8.054900068181755E-4
1                         0.25926886786031633      0
0.9400985167037915        0.2222107513132243       7.677511797482395E-4
0.2592688678603161        1                        0
0.2221281549058918        0.9400552244803126       7.683568688783836E-4
1                         0.3333456872489781       0
0.9400888005970804        0.2962915683932496       7.184128372481516E-4
0.33334568724897795       1                        0
0.2961261990907255        0.940024898280528        7.193039124641517E-4
1                         0.4074225066376398       0
0.9400780251959407        0.3703792882622274       6.590578835129557E-4
0.4074225066376398        1                        0
0.3700986913725839        0.9399539839809111       6.606672569243275E-4
1                         0.48149932602630147      0
0.9400671331398566        0.4444701830847752       5.919524383250168E-4
0.48149932602630163       1                        0
0.4439712839518112        0.9398234063069268       5.948400750425149E-4
1                         0.5555761454149633       0
0.9400358927607239        0.5185912519562984       5.193701034535764E-4
0.5555761454149635        1                        0
0.5176533761579555        0.9396159695001017       5.239690348204472E-4
1                         0.6296529648036251       0
0.9400592609484505        0.5927084315070956       4.425313894993658E-4
0.6296529648036253        1                        0
0.5913597294640062        0.9393216986581768       4.4941967876733043E-4
1                         0.7037297841922867       0
0.9403976574674832        0.6667598072692701       3.615750069151461E-4
0.7037297841922872        1                        0
0.6650477201180213        0.9391347842434187       3.711127754650281E-4
1                         0.7778066035809483       0
0.9408103924492672        0.7407962503349895       2.7989830868715596E-4
0.777806603580949         1                        0
0.738510780790401         0.939007678836241        2.909578108727694E-4
1                         0.8518834229696102       0
0.942273312515855         0.8143823832354231       1.95652639930808E-4
0.8518834229696108        1                        0
0.8096186763738448        0.9391620219054806       2.1148595608065085E-4
1                         0.9259602423509503       0
0.9454305499067561        0.8863579063682433       1.1326022185445196E-4
0.9259602423509594        1                        0
0.8860627798337012        0.9333476000603256       1.3870030389867194E-4
1                         1                        0
0.9514907144182831        0.9491331497559038       4.506691993972134E-5
-0.8345301613949352       -0.8864240414824847      3.4326862735978E-4
-0.8872439214538745       -0.8533263119790699      3.020822698042332E-4
-0.7730403152398194       -0.8808228787591851      4.939493955904481E-4
-0.8148779019700167       -0.8181433316194962      6.151434328458735E-4
-0.8816012136567353       -0.7796769401992165      4.763927543698721E-4
-0.7014295869418163       -0.879572442500732       6.559515317583637E-4
-0.7369798452309658       -0.818020582777779       8.746473735122693E-4
-0.7679927127841174       -0.7658343696345457      9.934040105563243E-4
-0.822757149657798        -0.7428981772325931      8.326648461602723E-4
-0.8819511245856292       -0.7049906782602152      6.353491783821492E-4
-0.6278835130098175       -0.8791808419873638      8.180504594172579E-4
-0.6635339924070359       -0.8170108495565027      0.0011240610509927198
-0.7012882399062896       -0.7464863215359421      0.0013859662029482463
-0.7640604271555174       -0.7036234350069179      0.0012792168302609502
-0.822765837444265        -0.6677891658111809      0.001074844812064133
-0.8815439497290108       -0.6307388057826874      7.959525524966251E-4
-0.554159823549791        -0.8796320756078426      9.714220692107044E-4
-0.58934849101683         -0.8189408711867422      0.0013534716577096777
-0.6227962608236711       -0.7573401690421092      0.0016738029460169749
-0.6482562273757901       -0.6909748376029727      0.001994086217009394
-0.7063036667483693       -0.6687723553412273      0.0017831084631593358
-0.7644123566635519       -0.6303821975139738      0.0015920174675200175
-0.8218700168740827       -0.5941017010706977      0.001316306819396387
-0.8811691248790411       -0.5564534025577976      9.542199402281653E-4
-0.4806387162386246       -0.8800478052011748      0.0011177907395829789
-0.5165313950924595       -0.8200363190373752      0.0015746934223651594
-0.5509240856967476       -0.7604915141871376      0.0019611308251658408
-0.5801339556067439       -0.7012534529761738      0.0022999838017377116
-0.6003516263058075       -0.6503711444125144      0.0025707898022450776
-0.6447917231990772       -0.6213815055563876      0.0024737957009245653
-0.7042291887804248       -0.5914072846232625      0.0022157906127290277
-0.7624307335778391       -0.5564216526673076      0.0019217453775712122
-0.8217070025048875       -0.5194511197528372      0.00155092761094094
-0.8809658479855988       -0.48214775606001914     0.0011062028083750947
-0.40701175022409775      -0.8803472893023044      0.0012556031561480917
-0.4433076983290322       -0.8205883991678312      0.0017897139346701718
-0.47899681741113576      -0.760972448676366       0.002257015306612775
-0.5128348948212162       -0.702396545549532       0.00265220040324934
-0.543576141048627        -0.6451999709505113      0.0029824812202333562
-0.5819807154882339       -0.587304367764754       0.0031884557043541056
-0.6444105709166875       -0.5528760559519003      0.0029283657550427645
-0.7029949909416041       -0.5184712136908814      0.002616855122034122
-0.7623034840722676       -0.4823094686010344      0.00223066809075941
-0.8215420349870907       -0.4452764456937102      0.0017743293255285972
-0.8808437361489303       -0.4079545300257245      0.001248625975055823
-0.3333087814946342       -0.8806165449948916      0.0013802655364846443
-0.3700183705014303       -0.8209705425771464      0.001989845166596765
-0.406428063947637        -0.7614431005000478      0.0025389140295548995
-0.44238439535991847      -0.7020184346669911      0.003022093563282514
-0.4765969893480422       -0.6437456681853766      0.0034300601917454624
-0.5095586590700983       -0.5861286477949801      0.0037633210194295123
-0.5375221786472004       -0.5370198341349977      0.003983398090673514
-0.5878336354701703       -0.516763324581091       0.0036913273941029186
-0.645222034491296        -0.4817557038203675      0.0033822085594043534
-0.7035349678701814       -0.4456674555241229      0.0029894395319396204
-0.7624104708669129       -0.40864407142827436     0.002519860187968823
-0.82145531381606         -0.37121818344009866     0.001981166501857524
-0.8808064407841488       -0.33379274388845587     0.00137726201307582
-0.2595144742912314       -0.8808691963878551      0.001487271693247912
-0.2964966940613783       -0.8212920188999528      0.002168209839468999
-0.33345777752264855      -0.7618129268417443      0.002798532755146532
-0.37037222285003485      -0.7025290319909375      0.003368684611781037
-0.40677941793282213      -0.6433991408277661      0.0038713447246493744
-0.4421727260427173       -0.5832045139006647      0.00431361109637252
-0.47550320384577005      -0.5202975318335767      0.004711445341806058
-0.5333728404760245       -0.47983621389575537     0.004535795062221091
-0.5883055365205812       -0.44648279419234344     0.004224496805105559
-0.6453947808388548       -0.41021193907809056     0.003827344507576335
-0.7036834757065688       -0.3726694148109296      0.003344121359781711
-0.7624207341200736       -0.3347936683356177      0.0027865428601680964
-0.8214962262564122       -0.2970931283700931      0.0021643011380213773
-0.8808627971894705       -0.2596855538393148      0.0014871218405983694
-0.1856526388830365       -0.8810402542612629      0.0015729232021751305
-0.2227806451341485       -0.8216071599938982      0.002316840408893078
-0.260007210827802        -0.7620790098538227      0.003026419109914028
-0.2975709733960931       -0.7027476356806616      0.0036874942157011613
-0.3356492838542227       -0.6438144733366336      0.004282777421638076
-0.37351531622360923      -0.5851067192371227      0.004801904761521447
-0.40896102228964837      -0.52970936571108        0.005210206490321297
-0.4275346182558336       -0.4827230981697953      0.005599075293230128
-0.4702877867641673       -0.44716437405838116     0.005538221959696791
-0.5312406435472747       -0.4135514147226256      0.005151021127890753
-0.5868018830147886       -0.37677887789473014     0.004756880502386685
-0.6450758913137268       -0.3379181763944062      0.004253623197159474
-0.7038027356678934       -0.2988216336105067      0.003668325888745983
-0.7625869111049751       -0.2605377519620567      0.0030181167072847355
-0.8809042025074656       -0.1856006967254471      0.001574801749343879
-0.8215597680631671       -0.22295628306874812     0.0023171522944690002
-0.11170586261825098      -0.8810641192237769      0.0016341166897369246
-0.1489537524706301       -0.8217760747336138      0.002430324182064386
-0.18613294206273534      -0.7626334509834629      0.003205993065344949
-0.22430458819033383      -0.7029826500663208      0.003959043710259665
-0.26252972464996827      -0.6436895499842444      0.004665326190660751
-0.3031333960643545       -0.5854207514918166      0.00528228500893605
-0.3420243583128895       -0.5285437568070901      0.005804324691013039
-0.3763822744007641       -0.4776348177423283      0.006186375080121689
-0.4126598909521516       -0.44207659765816365     0.006253690369030136
-0.42963067636214786      -0.39125089092302856     0.006661923188253799
-0.48354398407949395      -0.38390796328366006     0.006031665140708572
-0.5251318304285929       -0.34713826501088374     0.005808806830227566
-0.5857662810642302       -0.30537231444318186     0.005262680449515709
-0.6454184977349126       -0.26367385902594564     0.004634704128554945
-0.7043810276241459       -0.22344154362890398     0.003941706558971831
-0.8808487780532045       -0.11148260133094684     0.0016372653235542216
-0.7624372443482827       -0.18636845705705968     0.0032082853872539767
-0.821512359239518        -0.14881271777491062     0.002434226143425691
-0.037681404408674506     -0.8809548633138791      0.0016675177741181217
-0.07508432803919424      -0.8216630610112502      0.0025046322584153136
-0.11240641947679796      -0.7626377455020177      0.0033376306915554647
-0.18938305771544597      -0.6433677272915145      0.004984216670866559
-0.15063460194746178      -0.7034687313949547      0.0041640585108905295
-0.2308670696070428       -0.5849792442769006      0.005725037028347299
-0.2742167513793049       -0.5263925947488136      0.006381737584965304
-0.315937389519656        -0.4669982919113795      0.00695169956991968
-0.3610762675371948       -0.41092436450974296     0.007284382402159715
-0.3863381080305905       -0.34236580258840194     0.007887136991238169
-0.4582880553958993       -0.32766072936796203     0.0069655698379386555
-0.5239678108508831       -0.2767412181869096      0.006401011291616286
-0.8807297489728138       -0.0373773430879057      0.0016707894347093193
-0.5883262984224019       -0.22998681554326125     0.005676149741809582
-0.6455306681546746       -0.18653010306297074     0.0049606069837353555
-0.7033505253859548       -0.14912989580199082     0.004169444230242071
-0.8213246306444432       -0.07458084792245699     0.002509897474455391
-0.7620397811062016       -0.11191291488036204     0.0033472554034427947
0.03643088908036401       -0.8807851553144438      0.001670205461937159
-0.0010493133836578974    -0.821418302317111       0.0025335240017203757
0.11061354235661906       -0.8805998756133198      0.0016412931845745955
0.1848437746075122        -0.8804538474526562      0.0015816179052685869
-0.15306478322258543      -0.579476031352778       0.0061916658004225805
-0.03866803001858976      -0.7622539717329874      0.003412423199940278
-0.0767016806221309       -0.7035691716169545      0.004297884684601586
-0.11489757867528372      -0.6456101566738881      0.005177081102155464
-0.2069640667518547       -0.524764697772724       0.006882735075647483
-0.14655997837011248      -0.507269192786675       0.007563234531792161
-0.10391158155124706      -0.5427339257340698      0.007052534950196449
-0.24638170365248815      -0.46765664486562325     0.0076018785835768815
-0.5264297417819631       -0.2045654794615897      0.006868356706312932
-0.2857986092309864       -0.40732881479780714     0.008260172408453477
-0.3183774048238449       -0.34688989746477905     0.008849462249835495
-0.3493527336584733       -0.29861886955480194     0.00910211292419604
-0.4013035104059826       -0.2788500637100971      0.008449266783431967
-0.462604564016796        -0.24691124306494938     0.007687556100938671
-0.880539906484307        0.03667256559052994      0.0016736439949508934
-0.8804623216979542       0.11082960745231556      0.0016430760630095768
-0.8210959942852522       -4.3974235777923497E-4   0.0025382695484987214
-0.5811243197209471       -0.1462374590241343      0.006189527609360543
-0.5097555831804084       -0.14387377422347886     0.007528285778108581
-0.6426630672237001       -0.11135988790947515     0.0052348025933887975
-0.702398215729759        -0.07458381968879506     0.004319265869947776
-0.761766778144613        -0.03747127562214514     0.0034204551648038006
-0.8804616223541837       0.18504196694429598      0.0015813113241077183
0.25912315589606494       -0.880399284512301       0.0014937447182145679
0.33338521560417184       -0.8805066975420563      0.0013814253707080104
0.07317991833605117       -0.8210691778106618      0.0025145481738625412
0.035524028719878385      -0.7617976598175783      0.0034208837234970453
0.14745602561808416       -0.8207296225307935      0.002447018793180503
0.2218071733888941        -0.8205109672663891      0.0023333135579991066
-0.07846059859870294      -0.5981658106025218      0.006083026151463126
-0.05997256792080476      -0.5476481714592593      0.007071975227937793
-0.002360348774872223     -0.702421202421141       0.004365099812043531
-0.04149010243773599      -0.6448269580151588      0.005311268528755676
-0.07211340460136087      -0.5125721586129365      0.007751913558275527
-0.10473187313577334      -0.4963684509497092      0.007979052436969692
-0.02643107458911805      -0.5125199509457528      0.007837108245805897
-0.1848938680073948       -0.46122547807001585     0.00823338755639187
-0.12523821732922966      -0.4559253708294917      0.008743286094064747
-0.2192515562901087       -0.4057592713424063      0.009043468446361653
-0.46118817319062516      -0.18025926125242928     0.008268976520701478
-0.2537673335626257       -0.34574441869291184     0.009825759642458168
-0.2893615596064407       -0.2816542075107247      0.010467294166057519
-0.3467871829633332       -0.24415292436490935     0.009942250280812618
-0.4044500924754224       -0.2133907064107086      0.009132233333657784
-0.5373869295731549       -0.09866400358043573     0.007173717084112054
-0.49414170550327885      -0.09157960748473962     0.008076350395441686
-0.45499631030638243      -0.11737884538160195     0.008807308028805902
-0.8207175666367937       0.07347690360132259      0.0025194704232658536
-0.8205835991801846       0.14783086734448925      0.0024485984047472984
-0.7615256772055579       0.036652276142996244     0.003424532117275523
-0.5848085143168607       -0.07262972554698371     0.006338978985684119
-0.6430866607743925       -0.037186009391347696    0.005344977717980366
-0.7022163698964647       3.739497352623552E-5     0.004368465301211529
-0.8805805259468213       0.2592293832182209       0.0014913083503849277
-0.8207042993451384       0.2221830959021179       0.0023300314856321714
-0.8807776850496479       0.33336037003194025      0.001378298403369146
0.4075384374855006        -0.8807611048715073      0.0012502595178329036
0.481403026401587         -0.8812327285824377      0.0011051692570284216
0.2961213692815711        -0.8206224560540796      0.0021774147192739064
0.37023898483933404       -0.8210399392828738      0.0019884720620111786
0.11010433762501931       -0.7610844512707241      0.0033640322652432543
0.0729412938353126        -0.7007219649167585      0.004348178639933836
0.1845375911225144        -0.7605848535032901      0.0032387807990310407
0.2589319058078906        -0.760565847193073       0.003049757013929287
-0.009002404491864919     -0.5772249573098179      0.006553723392161669
0.03468786072009455       -0.6395095523147328      0.005408981748783687
0.03053486312987621       -0.5147658436458278      0.007785381746700068