% Model:              pm.mph
% Version:            COMSOL 5.2.1.152
% Date:               Oct 30 2017, 09:10
% Dimension:          2
% Nodes:              3386
% Expressions:        1
% Description:        Magnetic vector potential, z component
% Length unit:        m
% x                       y                        comp1.Az (Wb/m)
-1                        -0.9600000000000002      0
-1                        -1                       0
-0.9740933332002217       -0.9729508759586547      3.732681518537312E-5
-0.9599999999999909       -1                       0
-1                        -0.9200000000000004      0
-0.970336494572064        -0.9398023263824612      9.495671321359135E-5
-0.919999999999991        -1                       0
-0.9401301714290545       -0.9649520534108126      1.1194173350239243E-4
-1                        -0.8800000000000006      0
-0.96887238842246         -0.9002854130291967      1.643980912871063E-4
-0.8799999999999912       -1                       0
-0.8983984772705151       -0.9679046316113069      1.7471493553226623E-4
-1                        -0.8400000000000007      0
-0.968070916466612        -0.8603544199288203      2.346900027689612E-4
-0.8399999999999914       -1                       0
-0.8590495083204223       -0.9676688378194221      2.45565051343316E-4
-1                        -0.8000000000000009      0
-0.9679771297963818       -0.8202800563238605      3.003034044762811E-4
-0.7999999999999916       -1                       0
-0.8196215662584034       -0.9675486592909035      3.177515168311103E-4
-1                        -0.7600000000000011      0
-0.9678876717733229       -0.7802198221005822      3.641049197896851E-4
-0.7599999999999918       -1                       0
-0.779792161959171        -0.9675347463682948      3.9151722987941154E-4
-1                        -0.7200000000000013      0
-0.9677960186995637       -0.7401695817638365      4.2551943126625525E-4
-1                        -0.6800000000000015      0
-0.9677275026416053       -0.7001088579170887      4.834698401679585E-4
-1                        -0.6400000000000017      0
-0.9676712342945452       -0.6600616319950473      5.371438994077946E-4
-0.719999999999992        -1                       0
-0.7398205846855728       -0.9675709272678121      4.666981996974684E-4
-1                        -0.6000000000000019      0
-0.967638213319865        -0.6200294272642258      5.853425426887499E-4
-0.6799999999999922       -1                       0
-0.69991529849079         -0.9675946146935761      5.436956984896138E-4
-1                        -0.560000000000002       0
-0.9676213266479888       -0.5800118676516325      6.270690274493267E-4
-0.6399999999999924       -1                       0
-0.6599703553459365       -0.9676049780993341      6.227985811554146E-4
-1                        -0.5200000000000022      0
-0.9676141790871156       -0.5400039204264525      6.61277686435895E-4
-0.5999999999999925       -1                       0
-0.6199919587043962       -0.9676091424847657      7.037951063100818E-4
-0.5599999999999927       -1                       0
-0.5799980005622326       -0.9676102945040285      7.863320564875238E-4
-1                        -0.4800000000000024      0
-0.9676115745123163       -0.5000007927235971      6.868625502343908E-4
-0.5199999999999929       -1                       0
-0.5399999999999928       -0.9676106498984622      8.699099269242304E-4
-0.4799999999999931       -1                       0
-0.49999999999999306      -0.9676106498984621      9.539225282418103E-4
-1                        -0.4400000000000026      0
-0.967611172564827        -0.46000009075671233     7.026374721896914E-4
-1                        -0.4000000000000028      0
-0.9676115086667223       -0.42000018594715566     7.074156668182564E-4
-0.4399999999999933       -1                       0
-0.45999999999999325      -0.9676106498984621      0.0010376096543954197
-0.39999999999999347      -1                       0
-0.41999999999999343      -0.967610649898462       0.0011200821187925657
-1                        -0.360000000000003       0
-0.9676118661772661       -0.38000036694017786     7.00074546489657E-4
-1                        -0.32000000000000317     0
-0.9676122363454378       -0.340000576261735       6.796390704259331E-4
-1                        -0.28000000000000336     0
-0.9676126489990353       -0.3000007144554299      6.453942805564509E-4
-0.35999999999999366      -1                       0
-0.3799999999999936       -0.9676106498984621      0.0012003272203302759
-0.31999999999999384      -1                       0
-0.3399999999999938       -0.9676106498984621      0.0012772348690150215
-1                        -0.24000000000000354     0
-0.9676132378235752       -0.26000075635517367     5.969893244372454E-4
-1                        -0.20000000000000373     0
-0.9676143011087904       -0.22000087100081644     5.345394259700262E-4
-0.27999999999999403      -1                       0
-0.299999999999994        -0.9676106498984619      0.0013496308935873563
-0.23999999999999422      -1                       0
-0.2599999999999941       -0.9676106498984619      0.001416316189529911
-1                        -0.16000000000000392     0
-0.9676160667612569       -0.18000140767195974     4.587166394547525E-4
-0.1999999999999944       -1                       0
-0.21999999999999434      -0.9676106498984619      0.0014761098068564046
-0.1599999999999946       -1                       0
-0.1799999999999945       -0.9676106498984619      0.0015278936859092554
-0.11999999999999478      -1                       0
-0.13999999999999468      -0.967610649898462       0.0015706565729406332
-1                        -0.1200000000000041      0
-0.9676180973570707       -0.14000267896483307     3.708091715256239E-4
-1                        -0.08000000000000429     0
-0.9676198180202419       -0.10000464321744235     2.7271285794047733E-4
-0.07999999999999496      -1                       0
-0.09999999999999487      -0.9676106498984619      0.0016035346941470415
-0.03999999999999515      -1                       0
-0.05999999999999506      -0.9676106498984619      0.0016258470064055978
-1                        -0.040000000000004476    0
-0.967621165378922        -0.06000671616329736     1.668737868145762E-4
-1                        -4.6629367034256575E-15  0
-0.967622404896392        -0.020008333893378912    5.619034837201027E-5
4.6629367034256575E-15    -1                       0
-0.019999999999995244     -0.9676106498984619      0.0016371232171702875
0.040000000000004476      -1                       0
0.02000000000000457       -0.9676106498984619      0.0016371232114776489
-1                        0.03999999999999515      0
-0.967623130221947        0.01999103913361549      -5.61405059100238E-5
-1                        0.07999999999999496      0
-0.9676224428349044       0.05999195793347037      -1.668269703438085E-4
-1                        0.11999999999999478      0
-0.967618952758095        0.09999498999725422      -2.7269550227889723E-4
0.08000000000000429       -1                       0
0.06000000000000438       -0.9676106498984619      0.0016258469887808524
-1                        0.1599999999999946       0
-0.9676157789351164       0.13999725992430195      -3.7082331237290835E-4
0.1200000000000041        -1                       0
0.10000000000000421       -0.9676106498984619      0.0016035346645173587
0.16000000000000392       -1                       0
0.140000000000004         -0.9676106498984619      0.001570656533913934
0.20000000000000373       -1                       0
0.18000000000000385       -0.9676106498984619      0.0015278936424376855
-1                        0.1999999999999944       0
-0.9676136557248562       0.1799983589576375       -4.5874481825943604E-4
0.24000000000000354       -1                       0
0.22000000000000364       -0.9676106498984619      0.0014761097642925424
-1                        0.23999999999999422      0
-0.9676127982162815       0.21999863524216803      -5.345605656432076E-4
0.28000000000000336       -1                       0
0.2600000000000035        -0.9676106498984619      0.0014163161518253883
0.32000000000000317       -1                       0
0.30000000000000326       -0.9676106498984622      0.0013496308623084181
-1                        0.27999999999999403      0
-0.9676125418218907       0.2599986961956094       -5.96999413074204E-4
-1                        0.31999999999999384      0
-0.9676121169327021       0.29999898399649294      -6.454031840518438E-4
0.360000000000003         -1                       0
0.340000000000003         -0.9676106498984621      0.001277234843591355
0.4000000000000028        -1                       0
0.38000000000000295       -0.967610649898462       0.0012003271994324124
-1                        0.35999999999999366      0
-0.9676114553279954       0.33999946007140885      -6.796547934253566E-4
-1                        0.39999999999999347      0
-0.9676109184340959       0.3799998409641705       -7.000949379849067E-4
0.4400000000000026        -1                       0
0.42000000000000265       -0.9676106498984621      0.0011200821018931219
0.4800000000000024        -1                       0
0.46000002846079147       -0.967610674707522       0.0010376087878530285
-1                        0.4399999999999933       0
-0.9676106870362635       0.42000002687276017      -7.074336647967893E-4
-1                        0.4799999999999931       0
-0.9676106322036571       0.4600001614838695       -7.026491987591334E-4
0.5200000000000022        -1                       0
0.5000001677224071        -0.9676108317003548      9.539168142020505E-4
0.560000000000002         -1                       0
0.5400008028060835        -0.9676147807979717      8.697973061809293E-4
-1                        0.5199999999999929       0
-0.9676105828507898       0.5000004605778595       -6.868837966045857E-4
0.6000000000000019        -1                       0
0.5800023922716381        -0.9676268055608124      7.859222027686911E-4
0.6400000000000017        -1                       0
0.6200052637526872        -0.9676463420354935      7.029599775113727E-4
-1                        0.5599999999999927       0
-0.967610385911505        0.5400013083402883       -6.61357286283554E-4
-1                        0.5999999999999925       0
-0.9676094115323978       0.5800035404374954       -6.27308245136552E-4
-1                        0.6399999999999924       0
-0.967599027717867        0.6200098911089088       -5.860747692035137E-4
0.6800000000000015        -1                       0
0.6600103744453415        -0.9676750573716992      6.213719703974499E-4
0.7200000000000013        -1                       0
0.7000144510270582        -0.9677315591388943      5.412060101936052E-4
-1                        0.6799999999999922       0
-0.9675828749467114       0.6600229121017995       -5.386639427904615E-4
-1                        0.719999999999992        0
-0.9675459275684345       0.7000578255423374       -4.8626575868718555E-4
0.7600000000000011        -1                       0
0.7400206582972535        -0.9678216431796328      4.6271276970658503E-4
-1                        0.7599999999999918       0
-0.9674703438544965       0.7401631882856169       -4.2983981310830785E-4
0.8000000000000009        -1                       0
0.7800619140524878        -0.9679193673963242      3.8638464697984435E-4
0.8400000000000007        -1                       0
0.82013870345127          -0.96802654622893        3.121467745190452E-4
-1                        0.7999999999999916       0
-0.9673943649539125       0.7804883509694331       -3.6928710040978974E-4
-1                        0.8399999999999914       0
-0.9677948278889674       0.821223668951906        -3.005005006517139E-4
0.8800000000000006        -1                       0
0.8601402732700422        -0.9682452026588803      2.3928304778106913E-4
0.9200000000000004        -1                       0
0.9000208070124694        -0.9690522428442301      1.6575112109326392E-4
-1                        0.8799999999999912       0
-0.967221426928209        0.8605485941810495       -2.406148300205229E-4
-1                        0.919999999999991        0
-0.96771673556368         0.8982440447445197       -1.739537283826872E-4
0.9600000000000002        -1                       0
0.939607160479469         -0.970334955424489       9.56015106207494E-5
1                         -1                       0
0.9728571442142169        -0.9739734997013594      3.763329251152374E-5
-1                        0.9599999999999909       0
-0.9635833265489726       0.9393075392302255       -1.175620774076972E-4
-1                        1                        0
-0.9723857392714746       0.974131320612903        -3.805581304183439E-5
1                         -0.9599999999999909      0
-0.9600000000000002       1                        0
1                         -0.919999999999991       0
0.9646785605916144        -0.9395325430823175      1.1360035601451967E-4
-0.3                      -0.1                     0.049365617243814705
-0.3                      -0.06000000000000002     0.029367210761201728
-0.333317955151579        -0.07788162871891705     0.027455788271469245
-0.2599999999999993       -0.1                     0.06889577310179429
-0.27769693814270974      -0.13393807842526753     0.054731602584745416
-0.3                      -0.020000000000000018    0.009772690614085252
-0.33258613985850954      -0.03949934933011103     0.014820414660800184
-0.9200000000000004       1                        0
-0.9383453698084006       0.9713490638342984       -9.427565544952746E-5
1                         -0.8799999999999912      0
0.9676983874037104        -0.8978773414263975      1.7467173564286598E-4
-0.21999999999999936      -0.1                     0.07806427539231044
-0.23918533768959413      -0.13273636008361225     0.06522067071100125
-0.3                      0.019999999999999976     -0.009774343022920831
-0.33251549122470503      -9.446977731256423E-5    3.591997309705629E-5
-0.3                      0.05999999999999997      -0.029372424597683786
-0.3328556540408684       0.039074063903343705     -0.014630883358674142
-0.8800000000000006       1                        0
-0.9005073868406699       0.9686651188867629       -1.6699631530275007E-4
1                         -0.8399999999999914      0
0.9674174031306997        -0.8590493917690584      2.416800732886128E-4
-0.17999999999999944      -0.1                     0.08374136924731858
-0.1996846251949447       -0.13245527288707518     0.07248495473086969
-0.3                      0.1                      -0.04934918075816748
-0.33396921789861905      0.0775678736614842       -0.02719207184657409
-0.8400000000000007       1                        0
-0.860909744960373        0.9677384254587872       -2.4172888715757077E-4
1                         -0.7999999999999916      0
0.9674096438002469        -0.8195830972442056      3.067652317027308E-4
-0.1399999999999995       -0.1                     0.0874023026551412
-0.15991455945452135      -0.132378315983348       0.07739012712682099
-0.26                     0.1                      -0.0688928686280689
-0.277926244949301        0.13322768735030796      -0.054777278731871874
-0.8000000000000009       1                        0
-0.8208490697282199       0.9675976078177896       -3.15034717468978E-4
1                         -0.7599999999999918      0
0.9674929700860161        -0.7797299545926683      3.6935088511616635E-4
-0.09999999999999958      -0.1                     0.08974922510940157
-0.12000172613164779      -0.13237191677183252     0.08067346362433087
-0.22000000000000003      0.1                      -0.07806257706872101
-0.23941018357829633      0.1324989991370195       -0.0652269860606865
-0.7600000000000011       1                        0
-0.7805987312305556       0.9676583759832043       -3.885247975895555E-4
1                         -0.719999999999992       0
0.9675721946310422        -0.7398509374641137      4.289525789778281E-4
-0.059999999999999665     -0.1                     0.0911540323237171
-0.08001127244782814      -0.13237928037178318     0.08277505749885235
-0.18000000000000002      0.1                      -0.08374114037051379
-0.19981724500341355      0.13236165601341254      -0.07248791127456279
-0.01999999999999974      -0.1                     0.09181350762051126
-0.04000665052239582      -0.13238677592560066     0.08394750284974041
-0.7200000000000013       1                        0
-0.7403342345516851       0.9677132729600846       -4.636716930736539E-4
1                         -0.6799999999999922      0
0.967600760029069         -0.6999301082202569      4.8561847086611357E-4
0.020000000000000212      -0.1                     0.09181351302748102
-1.719101394641089E-6     -0.132389138385324       0.08432457873457838
-0.14000000000000012      0.1                      -0.0874024273239208
-0.15994097840040167      0.13234636708222403      -0.07739512132808508
-0.6800000000000015       1                        0
-0.7000959622117787       0.967729213047591        -5.410859933606552E-4
1                         -0.6399999999999924      0
0.9676088512163762        -0.6599720372897081      5.382954873166261E-4
0.06000000000000018       -0.1                     0.09115405139065764
0.0400000000000002        -0.13238935010153804     0.08394704913659551
0.10000000000000017       -0.1                     0.0897492615042464
0.07999131159552762       -0.13239034000464805     0.08277331217858136
-0.10000000000000017      0.1                      -0.089749327495882
-0.11998279944879721      0.13235495050406115      -0.08067872446786949
-0.6400000000000017       1                        0
-0.6600825932957447       0.9676789812563885       -6.211518952937891E-4
1                         -0.5999999999999925      0
0.9676107250950606        -0.6199910483802858      5.85883745688881E-4
0.18000000000000002       -0.1                     0.08374094187985105
0.14000000000000012       -0.1                     0.08740229612511874
0.15992510055383313       -0.132405565195403       0.07738236020240664
0.11997246500801646       -0.13239368708829188     0.08067023721949403
-0.06000000000000018      0.1                      -0.09115408769580798
-0.07999612035502277      0.13236241125998952      -0.08277958081490876
-0.6000000000000019       1                        0
-0.6200454614561979       0.9676500959410422       -7.027962130335559E-4
1                         -0.5599999999999927      0
0.9676111353718774        -0.5799971830720471      6.272808114316249E-4
0.22000000000000003       -0.1                     0.07806252772776852
0.19978563398429186       -0.13244928116991647     0.07247114258496183
0.26                      -0.1                     0.06889421501684362
0.23933202225883277       -0.13263492351017542     0.06521256063932461
-0.020000000000000212     0.1                      -0.0918135394545208
-0.04000086178930637      0.1323735882631815       -0.08395062483446734
-0.560000000000002        1                        0
-0.5800180853663489       0.967635005059546        -7.856905917030071E-4
1                         -0.5199999999999929      0
0.967611154457681         -0.5399990073126452      6.613433093402189E-4
0.3                       -0.1                     0.049354268400954616
0.27763032470599985       -0.1334456843446753      0.05483386172130809
0.01999999999999974       0.1                      -0.09181353316479883
6.97961761986915E-7       0.1323788450789018       -0.08432691293908372
-0.5200000000000022       1                        0
-0.5400052042773528       0.9676247682233726       -8.695198793834983E-4
1                         -0.4799999999999931      0
0.9676110087441133        -0.49999961877321014     6.868752138916467E-4
0.3                       -0.05999999999999997     0.02937233533309971
0.3337040482665365        -0.07772962096823939     0.027307426184250968
0.059999999999999665      0.1                      -0.09115406341319282
0.04000608658250229       0.1323757336375057       -0.08395003105150849
-0.4800000000000024       1                        0
-0.5000015831650251       0.9676162578096901       -9.53754042477637E-4
1                         -0.4399999999999933      0
0.9676108699556335        -0.4599998182936533      7.026441521157286E-4
0.3                       -0.019999999999999976    0.009774261715168068
0.3326478167217546        -0.039198388375512434    0.014702365478220599
0.09999999999999958       0.1                      -0.08974926479593166
0.08001063349522199       0.13236463299094298      -0.08277847323996679
0.1399999999999995        0.1                      -0.08740232941748116
0.12000166294780108       0.13235034138938856      -0.08067857521526915
-0.4400000000000026       1                        0
-0.46000037076060335      0.967611726378669        -0.001037574394777793
1                         -0.39999999999999347     0
0.967610906534821         -0.41999985000142814     7.07428887184402E-4
0.3                       0.020000000000000018     -0.009773080491199732
0.332408233757828         5.661130753932599E-5     -2.1547257918300953E-5
0.17999999999999944       0.1                      -0.08374138112385869
0.15995034624636523       0.13233880932183814      -0.07739615085078948
-0.4000000000000028       1                        0
-0.42000000000000265      0.9676106498984621       -0.0011200821178686904
1                         -0.35999999999999366     0
0.9676111343866923        -0.37999990795883304     7.000903168189474E-4
0.3                       0.06000000000000002      -0.0293680610485888
0.3324906474464027        0.039623082130566124     -0.014877590251367903
0.21999999999999936       0.1                      -0.07806512592438766
0.19966702072726059       0.13237434618834035      -0.07250753125376576
0.2599999999999993        0.1                      -0.06889603411356973
0.2391621539780334        0.1326306251582706       -0.06525089037147593
-0.360000000000003        1                        0
-0.38000000000000295      0.967610649898462        -0.0012003272142410064
1                         -0.31999999999999384     0
0.9676114333673297        -0.3400000537473031      6.796557100906473E-4
0.3                       0.1                      -0.0493695106704645
0.33327969922747647       0.07781999319575177      -0.027447751541384097
0.27751952545286224       0.13375897274291787      -0.05481613571856452
-0.32000000000000317      1                        0
-0.340000000000003        0.9676106498984621       -0.0012772348596357785
1                         -0.27999999999999403     0
0.9676116538563643        -0.3000001526795186      6.45413717263584E-4
-0.28000000000000336      1                        0
-0.30000000000000326      0.9676106498984622       -0.0013496308818752806
1                         -0.23999999999999422     0
0.9676116426819967        -0.26000014108863073     5.970181296223895E-4
-0.24000000000000354      1                        0
-0.2600000000000035       0.9676106498984619       -0.0014163161768625072
1                         -0.1999999999999944      0
0.9676114744699648        -0.21999996258522092     5.34584882375352E-4
-0.20000000000000373      1                        0
-0.22000000000000364      0.9676106498984619       -0.0014761097956088487
1                         -0.1599999999999946      0
0.9676118241536407        -0.17999936543656306     4.5877301927875453E-4
-0.16000000000000392      1                        0
-0.18000000000000385      0.9676106498984619       -0.0015278936788151044
1                         -0.11999999999999478     0
0.9676134223372852        -0.13999839144574258     3.708531283737097E-4
-0.1200000000000041       1                        0
-0.140000000000004        0.9676106498984619       -0.001570656571579852
1                         -0.07999999999999496     0
0.9676161224711909        -0.09999770186492364     2.727264519928174E-4
-0.08000000000000429      1                        0
-0.10000000000000421      0.9676106498984619       -0.0016035346980328698
1                         -0.03999999999999515     0
0.9676192605987198        -0.05999790302087249     1.6685967697445834E-4
-0.040000000000004476     1                        0
-0.06000000000000438      0.9676106498984619       -0.001625847013734205
1                         4.6629367034256575E-15   0
0.9676220328695168        -0.019998793968562356    5.616419950789467E-5
-4.6629367034256575E-15   1                        0
-0.02000000000000457      0.9676106498984619       -0.0016371232268929503
1                         0.040000000000004476     0
0.9676235502524845        0.020000115949402722     -5.6165275837952016E-5
0.03999999999999515       1                        0
0.019999999999995244      0.9676106498984619       -0.0016371232251166463
1                         0.08000000000000429      0
0.9676235984919668        0.05999878782583449      -1.6683957517884686E-4
0.07999999999999496       1                        0
0.05999999999999506       0.9676106498984619       -0.0016258470096977347
1                         0.1200000000000041       0
0.9676225053879793        0.09999724682658756      -2.7267113876459735E-4
0.11999999999999478       1                        0
0.09999999999999487       0.9676106498984619       -0.001603534694973347
1                         0.16000000000000392      0
0.9676203668662362        0.13999603739922037      -3.707675415602518E-4
0.1599999999999946        1                        0
0.13999999999999468       0.967610649898462        -0.001570656573039398
1                         0.20000000000000373      0
0.9676174085594017        0.17999549654394645      -4.586854196145929E-4
0.1999999999999944        1                        0
0.1799999999999945        0.9676106498984619       -0.0015278936868546123
1                         0.24000000000000354      0
0.9676144677158419        0.21999566316134         -5.345276814122736E-4
0.23999999999999422       1                        0
0.21999999999999434       0.9676106498984619       -0.0014761098100468416
1                         0.28000000000000336      0
0.9676123760981623        0.25999657240084956      -5.969995360923657E-4
0.27999999999999403       1                        0
0.2599999999999941        0.9676106498984619       -0.0014163161959961708
1                         0.32000000000000317      0
0.967611302818194         0.29999787842649106      -6.454183622602209E-4
0.31999999999999384       1                        0
0.299999999999994         0.9676106498984619       -0.001349630903763865
1                         0.360000000000003        0
0.9676109412016367        0.3399989437649064       -6.796653109983108E-4
0.35999999999999366       1                        0
0.3399999999999938        0.9676106498984621       -0.001277234882735321
1                         0.4000000000000028       0
0.9676108760539172        0.3799995110059741       -7.000957836683094E-4
0.39999999999999347       1                        0
0.3799999999999936        0.9676106498984621       -0.0012003272370370898
1                         0.4400000000000026       0
0.967610896594759         0.4199999009658992       -7.074291047531969E-4
0.4399999999999933        1                        0
0.41999999999999343       0.967610649898462        -0.001120082137656122
1                         0.4800000000000024       0
0.9676110095653874        0.46000034707005694      -7.026409689802074E-4
0.4799999999999931        1                        0
0.45999999999999325       0.9676106498984621       -0.0010376096742900087
1                         0.5200000000000022       0
0.9676113718705063        0.50000091445703         -6.86866799218492E-4
0.5199999999999929        1                        0
0.4999966023820459        0.9676081733628962       -9.540026235636259E-4
1                         0.560000000000002        0
0.9676131545317602        0.5400014475157308       -6.61300502738965E-4
0.5599999999999927        1                        0
0.5399886378158384        0.9676026563800163       -8.701484519841458E-4
1                         0.6000000000000019       0
0.967617710799387         0.5800021195369499       -6.271484487281681E-4
0.5999999999999925        1                        0
0.579970660306473         0.9675913339749102       -7.868491313810132E-4
1                         0.6400000000000017       0
0.9676246235502731        0.6200061605303735       -5.856148813530459E-4
0.6399999999999924        1                        0
0.6199339363576571        0.967571120242955        -7.047398579910807E-4
1                         0.6800000000000015       0
0.9676360304312372        0.6600175768194277       -5.3778547011748E-4
0.6799999999999922        1                        0
0.6598636255003876        0.9675363693793227       -6.243315372107063E-4
1                         0.7200000000000013       0
0.967666258730261         0.7000282230451712       -4.84499976063041E-4
0.719999999999992         1                        0
0.6997458490271281        0.96747336138265         -5.460622963161687E-4
1                         0.7600000000000011       0
0.9677129715263804        0.7400432310922441       -4.268044727278318E-4
0.7599999999999918        1                        0
0.7395881425917569        0.967363602649915        -4.701273445851895E-4
1                         0.8000000000000009       0
0.967768135749631         0.7800709521862698       -3.6569252774075223E-4
0.7999999999999916        1                        0
0.7794469545306794        0.9672350005888205       -3.957801172571022E-4
1                         0.8400000000000007       0
0.9678703078686821        0.8200988113706461       -3.015968187678354E-4
0.8399999999999914        1                        0