<?xml version="1.0" encoding="UTF-8"?>
<VTKFile type="UnstructuredGrid" version="0.1" byte_order="LittleEndian">
<UnstructuredGrid>
<Piece NumberOfPoints="1997" NumberOfCells="8863">
<PointData>
<DataArray type="Float64" Name="Magnetic_vector_potential,_x_component" Format="ascii">
5.286236672731282E-6
6.406299781076916E-5
4.227037220438515E-5
1.3615167142204634E-4
1.3657094677079848E-4
1.7278076226798917E-5
1.998395958303092E-4
2.500235765262176E-4
1.62026611546488E-5
2.5291565166906126E-4
2.8736714486441522E-5
2.1826047945517032E-4
3.137323231751242E-4
7.49328278843159E-5
5.4173802247988816E-5
1.7546403224777396E-4
3.000210546093251E-4
1.6029930624828387E-4
2.634347390192818E-4
4.311503486632878E-4
4.416493748305297E-4
3.729308727387072E-4
2.736925523297845E-5
2.583970115843001E-4
2.1337420696415738E-4
5.32102495211937E-4
4.695976280169392E-4
3.181999697108536E-4
4.903530590960249E-4
5.441550014059241E-6
6.033713589592492E-5
1.3238824239445194E-5
3.4029079656201804E-4
3.7834288169365646E-5
6.458547295029262E-5
6.81818755946977E-5
1.9569520295527996E-4
3.51228937965987E-4
2.944915198347686E-4
5.975693271262186E-4
4.112039287394411E-4
5.15334674365634E-4
6.886278585583E-4
7.044947274985584E-4
6.329389529967572E-4
7.372016046189237E-4
7.496928499019251E-4
7.11794379617148E-4
7.449412983607803E-4
7.054522698207769E-4
6.762584024484283E-4
0.0010043962922213164
9.90286925304534E-4
2.436297717200348E-4
3.884476748873716E-4
5.33044932176385E-4
4.926442910486948E-4
5.976949355372912E-4
5.813779197576801E-4
5.607075536823199E-4
7.776872979215548E-4
6.9552617458548E-5
2.797808186440265E-4
1.845690125995784E-4
4.3186695700438176E-4
3.7883721388626285E-4
2.6688949206810097E-4
9.113306126779707E-4
4.728034112853058E-5
1.9528270765095346E-5
1.2981431051789535E-4
7.062313329847566E-5
3.3286395968348906E-4
2.6711619099042716E-4
4.7278013674661984E-4
8.982763436692386E-5
9.999344666836456E-5
1.9312601186339818E-4
1.912825188241382E-4
3.164211234389503E-4
1.9448031781079068E-5
3.892080174933147E-4
6.678853341733399E-4
5.315421222860347E-4
4.5088742524075306E-4
9.844957263466475E-4
7.159847175970478E-4
0.0010134724379968726
9.660621379283765E-4
5.403091635690554E-4
9.207599085958555E-4
8.430791846788906E-4
7.635030218432342E-4
0.0011108671494906943
0.0012263404802813087
9.429752977312887E-4
9.406239186870282E-4
0.001309956144431857
0.0012616831129321773
0.0012562101562162784
0.001184178737593037
0.0012361071013174433
7.284482878494249E-4
0.001048765931603636
0.0010070555833579526
0.0011977897917584438
5.245233665787961E-4
6.076357144944934E-4
7.83023854997115E-4
7.378580313962638E-4
7.731383998960624E-4
9.315674575984416E-4
6.191932498077724E-4
3.5145063519413617E-4
1.2383441253171123E-4
3.9572430926391067E-4
5.941543136459996E-4
5.726822752526659E-4
6.90727357999824E-4
5.014976203882093E-4
8.044556747537112E-4
8.791812689063688E-4
5.023979948656635E-4
7.627228313398234E-4
8.72840367854506E-4
9.083429590676534E-4
7.737048082174477E-4
9.543818105201446E-4
9.477122099873441E-4
9.28357331313009E-4
0.0010727304960490972
0.001011926223897308
0.0011504854936775781
3.2460635290435605E-5
7.127059943895925E-5
2.568576053974284E-4
9.377696745354301E-5
3.080016239087248E-4
6.78186804086431E-4
8.526152811055484E-5
-1.6175076408626509E-7
2.013448051928154E-5
1.9265120505609874E-4
2.931486171548083E-4
3.138008399704306E-5
2.8846214346447946E-4
3.903676408358943E-4
6.672475007493439E-4
-6.264283195139803E-6
4.062137894817294E-4
5.886042938515521E-4
7.876649787516036E-4
0.001126771925883984
0.0010738602097347292
8.062502876948724E-4
8.067793779039217E-4
5.065021092337153E-4
9.935891958694565E-4
0.001005388912229611
0.0011315448745992595
0.0014630782985554556
0.00113340379844123
0.0012298068640515275
0.0010377341175076549
0.0014514554646833302
0.0013973419606543287
0.0013533223519267353
0.0011220633117995748
0.0010615665904791102
0.0015816957906114445
0.001611539450947572
0.0016207402402383755
0.001521037026913636
0.0014913653835297268
0.0016333350391736215
0.0011496942385798056
0.0012059165239646484
0.0013780560858390597
0.0013277705952466786
0.001131227148754288
0.0011902062816391966
0.0010141081680276182
0.0011405699321910287
0.0012586574462946512
0.0011630347157016321
0.0010322420377184961
0.001355632542962644
0.0014184180424625492
5.584539205915497E-4
5.384171872403952E-4
9.302876766920432E-4
8.130531433628348E-4
8.427084079402337E-4
8.41542251436621E-4
0.0010631875131539123
0.0010807308826450658
0.001110536025061651
0.0012156351823101202
0.001250470153872473
0.0012196045539264854
0.0011120931641738269
0.0012376749008272232
0.0010332896270122342
5.618621171258633E-4
0.0013876033648424911
0.001491669107627098
4.378282748919321E-5
2.765770093379998E-4
4.262661769444775E-4
4.5185497086755563E-4
2.8199485559778445E-4
1.15883072748664E-4
3.382907301518801E-4
1.9638676925613855E-4
7.422980474099612E-4
6.132291932193012E-4
3.6399561663002134E-5
1.7092929279582437E-4
2.7842599788170186E-4
4.0602172530845594E-4
5.302162913495967E-4
5.924000777578806E-5
4.9188686957681594E-5
2.2590599235441133E-4
3.48497559647163E-4
2.1312921075697467E-4
1.4826529107658793E-5
1.7594353970197562E-5
4.038874887631585E-4
4.041380329645627E-4
5.837342540840569E-4
8.162939350268001E-4
1.7390781287892456E-5
0.0011235798085620413
0.0013714419061957488
0.0014086261565516747
7.877098257420121E-4
0.0011242052527391203
8.58254049076854E-4
0.0011766716474502126
0.0013820825499534523
0.001345381473794541
0.001392426698581222
0.0013828098756318704
0.0015955595738904522
0.00129234914548144
0.0013740445958365345
0.001560640460225705
0.0014305373680564201
0.001553293649518996
0.0014448773665849692
0.0016378986459471348
0.0016663547079873214
0.001492466032418369
0.0013013446660397729
0.0012610859348462888
0.0011858958402740385
0.0013632825418536864
0.0015618805907527385
0.0015739578180008912
0.001679342073378191
0.001581092112091831
0.0014955048924927192
0.0014759363270826838
0.0015103343622990086
0.0012206952120390575
0.0013173676355284726
0.0013095763995962088
0.0018489298570578481
0.0017825854558925973
0.0018449445537560823
0.0017032457906501995
0.0019287904046636245
0.0018876978583153546
0.0016306575691880868
0.0015894719056809938
0.0018629881797822142
0.0018286842672674633
0.001741239521077791
0.0018330199413727434
0.0020060757380894654
0.0014881127550172941
0.0014157201509961256
0.0010921244643540774
0.0012277645637432965
0.0013015825204356426
0.001441546941301812
0.0015547930958701396
0.0017732884443789657
6.27436968159954E-4
8.9737167838858E-4
8.037937178781232E-4
0.001094038065132686
0.0010131416988211257
0.0015212178736714163
0.0013118837303725266
0.0015329692986483076
0.0012766242746711507
0.0010698132519669254
0.0010569584678196014
0.0010330248274908857
0.0011544575688706624
0.0012341314833780273
9.130306315491684E-4
0.0010902836616422842
6.503226121631522E-5
1.3219609902857576E-4
2.3462917200537528E-4
4.834231187599224E-4
3.2749307154182844E-4
5.355579696173E-5
1.480754242152674E-4
5.24276018304412E-5
4.027668763554837E-5
4.806053053008557E-4
4.870577900095889E-6
3.423527997896736E-4
3.701845239375396E-4
0.001103760376540951
7.77183802879266E-4
4.363889284012171E-4
6.296447806608654E-4
2.256214261992204E-4
7.736999609921651E-4
8.883742101852187E-4
6.35871469475997E-4
3.664562691038634E-5
3.075878833234687E-4
2.387997601700975E-4
0.0011396560279806655
0.0012293209808316478
0.0014432038024772148
0.0016475963812592732
0.0016698015957353225
0.0014311467964816095
0.0015733725561084672
0.0017577191211436216
0.0017491690981250778
0.0016379169734118998
0.001858198009364449
0.0017182000395057873
0.0016673244202916539
0.0017398735008313882
0.001847417688366388
0.0018713431942950001
0.0018339018366501484
0.0019100291312671145
0.0018525952075345304
0.0018391888174504028
0.001959488542313407
0.0019494968488233567
0.0016983611684836478
0.0018080876538113621
0.0017230447108852096
0.0016337419230295488
0.0016993577600688205
0.0018521392023490998
0.001940233523110418
0.001687285447681247
0.0018232943563984431
0.0019310653911034045
0.001747926811510815
0.0021129021010536007
0.001920951076991614
0.002068761987578211
0.0021555771857243305
0.0019702447240279143
0.0019514685762427365
0.0021845788437623226
0.001422457955362115
0.0016274437840938427
0.0015458079309391198
0.001178618773758801
0.0013887526863808311
0.001243552582161802
0.0018858094272947226
0.0020964503325869334
0.0017187087392116515
0.0020142009082841105
0.0015233833639785796
0.0016693425468106806
0.0016551433438813728
0.0018884458578772947
0.0016943072192317063
0.001874905220962479
0.0017403108364173138
0.0015806055482569406
0.001678483728436935
0.0017577777960427054
0.0010887565060167215
9.105915111339608E-4
9.703270541481036E-4
0.0013007280889568789
0.001477683040693814
0.0017439634047747502
0.0012638023412781172
0.001315975449078072
0.0015343336168199167
0.0015092258746392253
3.358488548285105E-5
1.4921554432802852E-4
0.001374702644007187
0.0011309869820788087
0.0013212707012388175
1.9945329013743265E-4
3.17043259084874E-4
5.930979375529566E-4
7.474444847266392E-4
4.7550283042858136E-4
3.9421717315612993E-4
2.8881707854418628E-5
3.450918466459678E-4
4.209738430267237E-5
3.4810201763184155E-4
2.5433713884314956E-6
0.0010790845084064104
8.196132722743008E-4
7.226810655487937E-4
9.772080097853802E-4
0.0010036972810698146
6.304633835977686E-4
9.909827414418424E-4
0.0012750211786942461
0.0013891573996969977
0.0018008307479632113
0.00145301467190587
0.0013372099717134875
0.001589802601617759
0.0015820876221264483
6.02314438922762E-4
9.94884907110793E-4
3.5857385802921874E-4
1.2231345560595104E-5
2.7478620768575597E-4
4.868230935269857E-4
2.1300246744071288E-4
7.769740450220453E-4
7.157594872869709E-4
5.26050223937844E-4
9.846795543467213E-4
9.07646032060712E-4
0.0011387864468928185
2.0672197585306805E-4
4.453535160955271E-4
6.693738842593066E-4
0.0017728595975719593
0.001718744960282292
0.0017315652468297541
0.0017936993207216196
0.0019201778262567166
0.001708029469697274
0.0017154067173812317
0.0019456327973333672
0.0019241181036594008
0.002044427661394984
0.002118524191451004
0.0019503208501181614
0.0020797710346712006
0.00199353335312968
0.0021584491355267615
0.0019759803378299363
0.0021057710918717374
0.0017864988938147523
0.0019799616370722545
0.001884732830718264
0.0019277346221662501
0.0018986769265789336
0.0019214422543342618
0.0018648491454215448
0.001945092169525926
0.0021986138017133375
0.0015947098630596794
0.0018317107084251346
0.00182367322680107
0.0019181034315006737
0.0019615151961148393
0.0021851931621108506
0.0020915463598061967
0.0021079719243558602
0.002163744548731174
0.002106628002080642
0.0015486652248111153
0.0017548703483842517
0.0018271527108053938
0.002002153703874342
0.0019009924723562609
0.0018464356857626073
0.0019386002213395786
0.002060623572533772
0.0011632338283847205
0.0012504651832514575
0.001651604650093688
0.0016680849545358534
0.001840286165837384
0.0014794219698845638
0.0015221265958215665
0.0013675561358020723
0.0013466903802665851
0.0013376376848464053
0.0014973543922905204
0.0011313572165353297
0.0014425342483345368
0.0010537388621598468
5.776558832409968E-4
9.122760310635138E-4
0.0011629039773686134
7.307411583325983E-4
9.893936867512092E-4
1.2287338902620063E-5
2.5798609706387607E-4
8.112533967436111E-4
7.176639863138608E-4
0.0014952772045018778
0.0014994039524038516
0.0012506912784291933
0.0010468275694935766
9.438219405558437E-4
0.0014054208333812732
0.0012759775728911934
0.001165233612258819
0.0016600514935219172
0.0012407162219232784
0.0010088313928673413
5.099086014306892E-4
8.017019626685601E-4
9.538665250803502E-4
8.819043739683389E-4
6.733744681706764E-4
6.998651191231205E-4
5.267705709806648E-4
0.001004046244397771
8.401410554321472E-4
0.0010316933521482248
9.329993727872633E-4
0.0011100764577875461
7.28601339118798E-4
0.0019722672116666644
0.0017965661788280107
0.0018636428091241776
0.0018555851240854295
0.0020522827966062886
0.0019162241853610926
0.0021737855224687524
0.0014548691768864423
0.001452316787546781
0.001994761131280651
0.0016454936194414587
0.0016926048153829264
0.0014444903100881284
0.0013366929003121007
0.0017559210721806568
0.001866144619118113
0.0017891032612581674
0.0019010142405513789
0.001925137041539311
0.001975244333494797
0.0020560842742649915
0.002141221446053752
0.0020644503896478927
0.0021074235366532806
0.001990633079020956
0.002173012340348874
0.002192016253425175
0.0021882329891918274
0.0019226682306611967
0.0019750089992879656
0.002107816776202093
0.0018772145327526392
0.0021514053234709426
0.0017533255211635507
0.0019728754758101593
0.002046296426075238
0.001258337315071654
0.0015677441938075842
0.0016306467713049083
0.0016633051004111047
0.001497584869853396
0.0015639846340905776
0.0017665400644879974
0.0017385686390201747
0.001707007613225517
0.0016647623437381956
0.00192444719501409
9.330659406579684E-4
0.0015401189991911576
0.0014129455950207444
0.0013639208764972936
0.0016632044216070199
0.0010931292962296044
0.0011526970873982113
0.0011792972116613852
0.0014075144896853104
0.0010753734422246817
0.001196476100489428
0.001213554275814614
0.0012772469356033245
0.0014852804476260745
0.001153368211266653
0.0018364341527574198
0.002028605852336207
0.002071369841631942
0.0021012400653067143
0.0020226561775175183
0.0021107083285268934
0.0019412491589730705
0.0020931290859775467
0.0015742267764608901
0.0016150026469826425
0.001348084335590999
0.00147404712474362
0.0016766329518549355
0.001841139891045352
0.0016936577202725188
0.001960051672827528
0.0019777867023829635
0.0019172023041877137
0.0018379264950551639
0.0018279730110817218
0.0016273998826129758
0.0020463963575157278
0.002024135651335015
0.001971130241347396
0.0014339263653770174
0.001609514598503239
0.001485763093927087
0.001302309521330669
0.0015277535630978045
0.0012822285888902754
0.0012104909560744811
0.001200703970182669
0.0019738293269671355
0.0019835713565610823
0.0018911604407797248
0.0017593127419948415
0.0015739433973158531
0.0017443334594202022
0.0015222297568290742
0.001790421782752251
0.0017223936908294778
0.0015335621140265092
0.0014433013517641815
0.0013422366277835768
0.0012596303811222725
0.0012710186267091432
7.905022116858678E-4
7.19886436286354E-4
0.0010162282698397552
9.610935041658347E-4
0.0010001402957776338
0.0012106987527627916
7.139548526790912E-4
0.001501560559115449
0.0014529765976762723
0.0016731562325689418
9.106320649336086E-4
7.388748850046656E-4
0.0010105503960910138
0.0016024549247769355
0.0017650124772869596
0.0017405678687094283
0.0018044756557187346
0.0019458398166939473
0.00158465895106776
0.001379298151483499
0.0013108731338667703
5.856788783647248E-4
0.0012710575057549246
4.654353257962362E-4
0.0017710296803512295
0.0018466485635238003
0.0020312901355940094
0.0015303563247255104
0.0017158020681914213
0.0014660670608053468
0.0012151273408621158
0.001614429740074691
0.0015789741548428145
0.0011636656211763444
0.0018910462619773122
0.0017998405914112375
0.0020399384760284244
0.002019932951187877
0.0021980904722428782
0.0017168168927710324
0.002031410529728295
0.001632152231173153
-0.0012517471271300679
-0.0014257689884409326
-0.0011716039169257304
-0.0013119109906354503
-0.001279165255619685
-0.0012820043435669657
-0.0012373691612086676
-0.0013852150664466186
-0.0011549945965306512
-0.0012807494942755609
-0.0015166071634042165
-0.0015249806930029471
-0.0016558076656445389
-0.0015164868677276647
-0.0012039815120772682
-0.0017867144097477488
-0.0017521073234545589
-0.0019157262408272375
-0.0018175555392444735
-0.001984941258063432
-0.0016073936733890682
-0.0012139038015900028
-9.983038039815635E-4
-0.0013371278380643165
-9.324185410273494E-4
-0.0010880459406511535
-0.0014086699238256338
-0.0011243960974271973
-0.0012095307057775908
-0.0014885029632586526
-0.001436000987783434
-0.0012094490243746378
-0.0016120711382660072
-0.0017499787026092539
-0.0016405117305339917
-0.0013357965916734685
-0.0018140946809745363
-0.0018806097077809605
-0.002044621540056716
-0.0013745713006224562
-0.0013841491766765504
-0.0012488190892509874
-0.0014808103055033417
-0.0013714697690770826
-0.0017495398475424542
-0.0017252346332311873
-0.0014860382544418056
-0.0018219185045268004
-0.0015825323805072032
-0.0020762258964384674
-0.0019122906028478858
-0.0019500570269239423
-0.0018248448147959065
-0.001737527025164582
-0.0020721167847226997
-0.002142262555272462
-0.0015756071741819596
-0.001486460433845355
-7.461590196326373E-4
-9.381614229162628E-4
-0.0016214015930278174
-0.0016583441495721877
-0.0017603608851197738
-0.0013734931033698187
-5.189143672647248E-4
-7.111047488901677E-4
-7.43520471013556E-4
-0.0014754782578997672
-0.0012133703416798063
-0.001011648334223131
-9.881041662090702E-4
-0.0013699452295886424
-0.001218019505634596
-0.0010952313803716765
-0.0010071090733081796
-0.0011066781912396624
-8.397512704086715E-4
-0.0011157464280648441
-0.0013977961515314562
-0.0015810486484482528
-0.001671486337603855
-0.0019092410632844694
-0.001774019663493344
-0.0019517144666896062
-0.0018997537584101384
-0.002156344651440188
-0.002050012379261495
-0.0019750991303655123
-0.002039187830731086
-0.0020272126782294544
-0.0018083953299457382
-0.0016804950864639217
-0.0018602114959107823
-0.0012482232787490804
-0.0015346570475957915
-0.0016871133455264988
-0.0019543588365048574
-0.0017305771514560043
-0.0018495062149496853
-0.0018452550836663617
-0.0015224101016794612
-0.0016936199570589492
-0.0020434445110337424
-0.002192579150514706
-0.002123132929197909
-0.0022290656152542674
-0.0020511771759493917
-0.00217332818055195
-0.002054275359090915
-0.0021499367008726
-0.0021628747151153406
-0.0018309791907443118
-0.001925306748826082
-0.0020678940075551924
-0.002143637826780673
-0.002187429536198654
-0.0020386364802665578
-0.0022131467970728205
-0.0021703937717151077
-0.0021358288499657334
-0.0021454480173612373
-0.001993525574243039
-0.0019857541700319665
-0.002116482581854085
-0.001245318527207696
-9.152571882441552E-4
-2.561534993670597E-4
-4.624567467753424E-4
-4.7135369867973433E-4
-6.891225350823382E-4
-8.656769198400276E-4
-0.0011241115999563532
-7.017136278034975E-4
-9.064956709419028E-4
-0.0016201191038920455
-9.915184453343955E-4
-0.0012788275428845207
-0.001424874392539408
-6.863002849453172E-4
-5.319431191187167E-4
-7.537954639269902E-4
-8.899960976101692E-4
-0.0011191517154973474
-0.0013201547145021445
-0.0010085722504249144
-9.74399465405984E-4
-0.0019381547544956917
-0.0015177675805925935
-0.0017361817718183224
-0.001913344095134416
-0.002010166549045018
-0.0019176172624232883
-0.0020270783701595092
-0.0019325108144201244
-0.002027937867963675
-0.0021478629718056047
-0.001725855568176586
-0.0018867978517686172
-0.0019076420008662432
-0.0020530963429335287
-0.0020375741984517996
-0.0018740874408304773
-6.431866787287571E-4
-3.966523730615578E-4
-3.216365366902087E-4
-2.1376004131594832E-4
-3.7167657741763566E-4
6.924513699199399E-6
-1.954874229516844E-4
-0.0011504404213303096
-0.001621007887179999
-0.0017729125499761221
-0.0019158361602638117
-0.0020329730040426447
-0.00183294930213658
-0.0020815325899609604
-0.0018446156519783693
-0.001639046342207916
-0.0019292361550717668
-0.001776295416170166
-0.0016303632682907589
-0.001387970942290479
-0.002192017793103391
-0.0021768041380237978
-0.002186410998288003
-0.0019732572291921704
-0.0019525073822857233
-0.001995749254004147
-0.0018554775555149436
-0.0016591029459267724
-0.0018495514837078703
-0.0021742267754287035
-0.0019078255259433333
-0.002081265333448167
-0.0021258379399729708
-0.002214622948924993
-0.0019823202407546806
-0.001959349190442021
-0.0019952096984086295
-0.0021310441069707768
-9.872490951365694E-4
-0.001894925480907264
-0.0018097593454198192
-0.0017008712094273475
-0.0019511886936887672
-0.0018393995867396309
-0.00207441054937471
-0.0020435451712731505
-0.0018323298795816531
-0.0014258773773778244
-0.0013422371338657653
-0.0011424324017420908
-0.00110711472260312
-0.0015175433061433373
-7.703994752978851E-4
-6.905618413222116E-4
-6.002147662042385E-4
-5.235015720255964E-4
-3.4425123552222163E-4
-3.349666455974432E-4
5.997154553042618E-6
-1.639413718677105E-4
-3.8131493734567574E-4
-5.762072413546859E-4
-8.102066270159324E-4
-0.0013363226348579076
-0.0015503080676930274
-0.0015001280380439648
-0.0013455340867648874
-4.066441408016651E-4
-5.611251969916401E-4
-7.572394868928975E-4
-0.001217180095452037
-0.0011902689806267336
-0.001303328727693063
-0.0010363382137893186
-9.92030043462813E-4
-0.0011459613145542022
-0.0013586255172704583
-0.0020229044898531293
-0.001813863762442141
-0.001859775076601583
-0.0018961111136110284
-0.001555115496615515
-0.0017659011594579712
-0.0013442882204666418
-0.0017983474683029184
-0.0017162757372748494
-0.0017651668849893035
-0.0015878074461230102
-0.0015498417052856087
-0.0017890072910954975
-0.0014353697880410403
-0.0017085865838482497
-0.0016582644462869857
-0.0016898550356636045
-0.0019621194573370255
-0.0018319501216128781
-0.001850209472769252
-0.0019046991102461296
-0.0020529270718528387
-0.001912269073995718
-0.001655072227658408
-0.0017956544398491144
-0.0017522678900813281
-0.001804911665938755
-0.0019685227188062666
-0.0016668853731826457
-0.0014378124544536129
-0.0017544829150035472
-0.0013896387377899055
-0.0015184406967583561
-9.120369545238665E-4
-0.0011570423722643767
-7.877270036599857E-4
-2.6044146309446434E-4
1.925793366734481E-6
-3.1416775511729634E-4
-1.3835596710831912E-5
4.9968472567685296E-6
-1.1020829374666605E-5
-0.001975620242882618
-0.0019567213181288534
-0.001946303058159235
-0.0016481782910928021
-0.001441437442831051
-0.001909165295995182
-0.00177911537611862
-0.002104368492869132
-0.0020466835997891312
-0.0019216615408147984
-0.00216844944601513
-0.0020662351215359454
-0.0019267523108539575
-0.0019860516680663617
-0.0019470975728614539
-0.0013917091429987247
-0.0016540707984097588
-0.0017921697815079388
-0.002024759549770953
-0.0019062385127797273
-0.0017962955103574287
-0.0015855982908348145
-0.001927148118027327
-0.0018527912489774232
-0.0019243738317667352
-0.0017244939742951531
-0.0017548208458217753
-7.420034294854091E-4
-3.977896894504599E-4
-0.0016430911897941636
-0.001810125386223477
-0.001658197655453605
-0.0017412375770775562
-0.0016179492058299876
-0.0014933914536171317
-0.0015883202580273727
-0.0015010660466905812
-0.0014406446703180164
-0.0012781546674491327
-0.0011565837281550702
-0.0010405222286553146
-7.956485674163893E-4
-0.0016336087053826292
-0.0017613072560477721
-0.0018515680072510585
-0.0017335182043340808
-0.001654903937898279
-0.0016019549892683747
-0.0010532828596584514
-0.0013670703979579383
-0.0013032499441845977
-0.0015386631012018306
-0.0011931348979273104
-0.001279155565044798
-9.566250365947998E-4
-8.578717666513031E-4
-0.001098666183728267
-0.0014244023610479183
-0.0014687809871269206
-0.0016763862115080712
-0.0015305075248567912
-0.001381268836075964
-0.001578578907389538
-0.0013300116930823295
-0.001422512757706142
-5.942180290257476E-4
-7.419429087408702E-4
-5.219427073517217E-4
-8.854020138858117E-6
-1.0049400406133188E-5
-3.1737281705868396E-4
-2.4254982361731118E-4
-3.530937541294354E-4
3.84439826091444E-6
-3.645760988213211E-4
-1.8412124037157918E-4
9.879653031787533E-6
-5.856819182971289E-4
-7.071843404935982E-4
-7.875379574181468E-4
-6.260163161039391E-4
-5.517090633675616E-4
-7.988610731042277E-4
-0.0014823110807348086
-0.0015719010952364046
-0.0015620228333531026
-0.0017790517113420654
-0.0015649690124059762
-0.0015738824001833435
-0.001567451372219938
-0.0015590507758290592
-0.001557774669099976
-0.0016675025657517375
-0.0017278201376034175
-0.0015602766015967748
-0.001537281782962837
-0.0015106151156238307
-0.0017612673298639332
-0.0015675874623482509
-0.001098853780663315
-0.0013922370569226657
-0.0012841373248832257
-0.001151218321127263
-0.0013164548440613118
-0.0011275288245522672
-0.0014101436875091256
-0.0010279238027213389
-4.480179694410999E-4
-5.625773975684834E-4
-1.9703879991090611E-4
-4.081403258340403E-4
1.3728746333783503E-5
-1.720391415171055E-4
4.038865863553386E-6
-1.9219075015251364E-4
-0.0017783803130693918
-0.0017941923306127071
-0.0015947419299007846
-0.0017488468840959669
-0.0018502369030608885
-0.0017218722828740238
-0.0018367824057844149
-0.001575725926294847
-0.0018678786427759851
-0.0016814314122777108
-0.001255859972136956
-0.001454853817097853
-0.001595783734297042
-0.0014671013426622707
-8.371851329030657E-4
-0.001060875215552939
-5.297181792806865E-4
-4.176494620570328E-4
-6.019267079328546E-4
-7.916829365020298E-4
-6.434535424772124E-4
-4.1093465765292073E-4
-0.0014988681842592973
-0.001459261364115704
-0.0013297796969627114
-0.0015556204845486516
-0.00140485183920574
-0.0013141785169458696
-0.0012543760925429399
-0.001191617861550599
-8.213741247595895E-4
-9.74001773526266E-4
-7.043497292746202E-4
-0.00159193620373315
-0.0017372838136078862
-0.0015419729496327496
-0.0015508565344038005
-0.0013817855087559178
-0.0014468962272395816
-0.0013419449259656222
-0.0013380523204899056
-0.0015652840979736601
-0.001336937794363564
-0.001335909002595361
-0.001121591567912635
-0.0010620951883675387
-0.0010949094938708152
-8.441243724471287E-4
-0.0010564936088350077
-0.0011715411028040536
-0.001163549670631466
-0.0013490319298854457
-0.0012355693060506132
-0.001259538058147476
-0.001200683971066353
-0.0011094016051192894
-0.001354306953467845
-0.0012771339914203431
-0.00141712859924441
-9.929279085787686E-4
-0.0010386608441154263
-0.0013098337488267754
-0.0015246067620154854
-2.3449003669356132E-4
-2.8756559834096216E-4
-3.633729228459379E-4
-1.0654380849497182E-6
-2.2075353991062088E-5
-3.587037077541245E-4
6.455854197551133E-6
6.182700997312635E-5
-0.0013671390581074631
-0.0013772432197773643
-0.001336067159928051
-0.0013792122954247863
-7.333006023981072E-4
-0.0010561892782932098
-0.0010499277021616905
-0.0013607445354631308
-0.0012860208430271187
-0.001393364139799472
-7.928734668048077E-4
-9.023762400755327E-4
-7.867894995111357E-4
-0.0010273856320041808
-8.174193029395857E-4
-7.292239075605642E-4
-2.709126192795798E-4
-3.991743319074596E-6
-2.678839432736392E-4
-4.1059707743991165E-4
-3.603108374402102E-4
-2.151763994772574E-6
5.451617952132138E-5
-1.0519139030907574E-5
-8.32309888066138E-6
-0.001489404961611513
-0.001201053375491487
-0.001189869516978215
-0.0013525459448474086
-0.0012771403276894571
-0.0011620619978101496
-5.397861803744809E-4
-5.440289249626406E-4
-5.152836412822776E-4
-2.584130011258909E-4
-3.5664458335728954E-4
-0.001242983979827314
-0.0010676520184282432
-0.001126742727842655
-5.474934820330406E-4
-1.4422820441264856E-5
-4.1555557271056996E-4
-8.385788676193568E-4
-5.882288773608365E-4
-4.58645668188086E-4
-0.0012530664653228787
-0.0013560318438007926
-0.0012098240040530012
-0.0012243443809722085
-0.0010907988836863498
-8.636415451811705E-4
-8.919256762534183E-4
-0.0011000839081879024
-0.0011897025022657693
-9.772561987563082E-4
-3.91146251357632E-4
-8.055335924883474E-4
-5.806212935613418E-4
-0.0011109439539513997
-0.0012594941643009278
-0.0011575712126227905
-0.0010004693811393702
-0.0010223497604136148
-0.0011904305426875565
-7.947331593872611E-4
-6.024362043680679E-4
-8.352033588518503E-4
-8.108807227390595E-4
-9.383164897174635E-4
-0.001003075387589351
-9.490433164850297E-4
-0.001160279259097442
-0.0010088169648928304
-0.001167551687908814
-0.0011363098293782638
-0.0011039798697451975
-4.796205549680876E-5
1.764228682146694E-5
-4.1842857087003134E-6
-9.410491297150624E-4
-3.43431025215349E-4
-5.340617607022599E-4
-8.046225308082896E-4
-0.0011865005381764629
-9.371443230123709E-4
-0.0010218930769402845
-8.901925951852314E-4
-9.418270248061879E-4
-0.0010405203285854627
-2.662672035163854E-4
-6.198123823929914E-4
-2.1983758868888964E-4
1.6882300344996252E-6
-2.2883572091137233E-4
2.0807733132258225E-6
-2.4481710096536127E-4
-8.402467505795827E-7
2.658898937824025E-5
-3.0322273293447816E-4
2.150714043640415E-5
-2.6677016132650163E-4
5.676001804832248E-6
-5.662698965912231E-4
-5.131285589451592E-4
-3.120888173117E-4
-2.639364857501008E-4
-8.014439853783686E-4
-7.189096432451091E-4
-7.834667950047449E-4
-8.155644272741405E-4
-4.0790537063085193E-4
-3.2218464841322746E-6
-1.0482413108055035E-6
-2.4228998429051812E-4
-4.8211895022064817E-4
-5.262375393273688E-4
-8.811725462312085E-4
-8.692127889598597E-4
-8.607466195470948E-4
-6.310862058114009E-4
-5.070262518265568E-4
-5.800681337685781E-4
-6.784976255475955E-4
-7.661428767867765E-4
-6.523539422984925E-4
-9.479353745155385E-4
-8.699189519605033E-4
-7.675181667935962E-4
-7.302882713510953E-4
-6.778236832882802E-4
-2.2880001620930335E-4
9.535387739290497E-7
-3.0318762336276635E-6
-1.508251193795602E-5
-3.913415465616495E-4
-5.225473874979135E-4
-7.356356495392969E-4
-6.965273667010295E-4
-7.290164740314301E-4
6.44152872417104E-6
-2.000918657907854E-4
-2.109559490131294E-4
-3.1561097898985616E-4
-6.067725564861238E-5
-4.456680054214198E-5
-8.557409407708411E-6
-4.6729284895598316E-4
1.2856369941960803E-5
-3.625777144311492E-4
-2.3300204165347874E-4
-2.662186011714558E-4
-2.5096910145773314E-4
1.6207492862312292E-5
-2.3888026709495414E-4
-2.0974666005647478E-4
-3.7763220688027314E-4
-1.5074058319236968E-4
-4.3413586872635094E-4
-4.396570614982048E-4
-6.660745328327151E-4
-5.295852493447768E-4
-4.1222871451623253E-4
-6.165771904225075E-4
-6.203042889476813E-4
-5.453456687760887E-4
-5.083824764424004E-4
-5.795814094665084E-4
4.031407473422979E-5
-1.6276597007075963E-4
-1.5232665769966428E-4
9.79831147740729E-6
-3.562654759693184E-4
-2.1636849209460846E-4
-3.276653117565315E-4
-2.332455830780883E-4
5.113163531450754E-6
1.912585592568873E-5
1.1278229555031358E-5
-2.494660459717764E-4
-3.582942647314787E-4
-1.5455819765234478E-5
-4.016082868181945E-4
-2.7316250916170946E-5
2.9715490321382835E-6
-1.3518063093118606E-4
-1.7100783409493566E-4
1.8093905372832695E-5
-1.6826717383584973E-4
6.716300385733761E-6
-0.001835050076529451
-0.0013648903994342662
-0.0018507363364834654
-0.0015747942366901562
-0.002073366321785667
-0.001663128798504111
-0.002053053494667415
-0.002104116554173006
-0.001483363751245735
-0.0013442294108473496